# vtk DataFile Version 1.0
3D triangulation data
ASCII

DATASET POLYDATA
POINTS 10 float
18 0 0
24 0 0
24 6 0
18 6 0
12 0 0
6 0 0
12 6 0
6 6 0
0 0 0
0 6 0
LINES 17 51
2	0	1
2	1	2
2	2	3
2	3	1
2	4	0
2	5	4
2	5	6
2	3	6
2	0	3
2	6	0
2	6	7
2	7	5
2	8	5
2	9	8
2	7	9
2	8	7
2	6	4
POINT_DATA 10
VECTORS Displacements float
7.5e-05 -0.00217279 0
0 0 0
-0.00045 0 0
-0.00045 -0.00172279 0
1.01644e-19 -0.00297206 0
-7.5e-05 -0.00217279 0
1.0842e-19 -0.00267206 0
0.00045 -0.00172279 0
0 0 0
0.00045 0 0
CELL_DATA 17
SCALARS Forces float 1
LOOKUP_TABLE default
-248.688588
0.056250
0.824448
-2120.992460
250.177449
250.177449
-707.083879
-1499.749675
1500.076557
-707.083879
-1499.749675
1500.076557
-248.688588
0.056250
0.824448
-2120.992460
1000.000000
