# vtk DataFile Version 1.0
3D triangulation data
ASCII

DATASET POLYDATA
POINTS 14 float
12 6 0
18 6 0
18 3 0
18 0 0
12 0 0
6 6 0
24 6 0
24 3 0
6 0 0
0 0 0
0 6 0
6 3 0
12 3 0
24 0 0
LINES 25 75
2	0	1
2	1	2
2	2	3
2	4	3
2	2	4
2	5	0
2	0	2
2	1	6
2	1	7
2	6	7
2	7	3
2	8	4
2	9	8
2	9	10
2	10	11
2	11	9
2	5	12
2	10	5
2	12	0
2	7	13
2	3	13
2	4	12
2	12	8
2	5	11
2	11	8
POINT_DATA 14
VECTORS Displacements float
-0.0001125 -0.00321455 0
-0.0005625 -0.00234529 0
5.625e-05 -0.00245779 0
0.000375 -0.00249529 0
0.0003 -0.00336455 0
0.0004875 -0.00234529 0
-0.0005625 -0.000225 0
-0.00013125 -0.000225 0
7.5e-05 -0.00249529 0
0 0 0
0.0009375 -0.000225 0
0.000525 -0.00230779 0
0.00024375 -0.00325205 0
0 0 0
CELL_DATA 25
SCALARS Forces float 1
LOOKUP_TABLE default
-1499.790090
750.425375
250.112889
250.209891
559.205095
-1999.790085
-558.891211
1.248784
-1676.080859
0.206641
1678.182909
750.209886
251.729551
-749.755850
1677.982407
-1675.876417
559.205095
-1498.751122
250.141014
-1499.980858
-1248.270319
750.003515
-558.891211
-249.998437
1250.224986
