# vtk DataFile Version 1.0
3D triangulation data
ASCII

DATASET POLYDATA
POINTS 16 float
15 6 0
15 0 0
12 0 0
9 0 0
9 6 0
6 6 0
6 0 0
12 6 0
18 0 0
3 6 0
0 0 0
3 0 0
18 6 0
21 6 0
24 0 0
21 0 0
LINES 29 87
2	0	1
2	2	1
2	3	2
2	4	3
2	5	4
2	5	6
2	4	6
2	7	0
2	7	2
2	1	8
2	2	4
2	4	7
2	6	3
2	9	5
2	9	10
2	10	11
2	11	6
2	8	0
2	0	12
2	12	13
2	14	13
2	15	14
2	13	15
2	0	2
2	6	9
2	9	11
2	13	8
2	12	8
2	8	15
POINT_DATA 16
VECTORS Displacements float
-0.0006 -0.00524447 0
0.00015 -0.00554447 0
1.48331e-19 -0.0057541 0
-0.00015 -0.00554447 0
0.0006 -0.00524447 0
0.00105 -0.00416558 0
-0.0003 -0.00416558 0
1.93898e-19 -0.0057541 0
0.0003 -0.00416558 0
0.0015 -0.00221742 0
0 0 0
-0.00015 -0.00251742 0
-0.00105 -0.00416558 0
-0.0015 -0.00221742 0
0 0 0
0.00015 -0.00251742 0
CELL_DATA 29
SCALARS Forces float 1
LOOKUP_TABLE default
1000.156242
1000.048826
1000.048826
1000.156242
-2998.706459
0.506250
-1676.682595
-3999.711360
0.000000
1002.112504
559.146895
-3999.711360
1002.112504
-2995.782351
-3911.908881
-992.958092
-996.981604
-1676.682595
-2998.706459
-2995.782351
-3911.908881
-992.958092
1000.756212
559.146895
2796.452872
1000.756212
2796.452872
0.506250
-996.981604
